 H2O Opt B3LYP/Bur (O VTZ, H VTZ-ANO_Filippi)            
GAUSSIAN              4 MOL ORBITALS    128 PRIMITIVES        3 NUCLEI
  O    1    (CENTRE  1)   0.00000000  0.00000000  0.22160692  CHARGE =  6.0
  H    2    (CENTRE  2)   0.00000000  1.44581258 -0.88642769  CHARGE =  1.0
  H    3    (CENTRE  3)   0.00000000 -1.44581258 -0.88642769  CHARGE =  1.0
CENTRE ASSIGNMENTS    1  1  1  1  1  1  1  1  1  1  1  1  1  1  1  1  1  1  1  1
CENTRE ASSIGNMENTS    1  1  1  1  1  1  1  1  1  1  1  1  1  1  1  1  1  1  1  1
CENTRE ASSIGNMENTS    1  1  1  1  1  1  1  1  1  1  1  1  1  1  1  1  1  1  1  1
CENTRE ASSIGNMENTS    1  1  1  1  1  1  2  2  2  2  2  2  2  2  2  2  2  2  2  2
CENTRE ASSIGNMENTS    2  2  2  2  2  2  2  2  2  2  2  2  2  2  2  2  2  3  3  3
CENTRE ASSIGNMENTS    3  3  3  3  3  3  3  3  3  3  3  3  3  3  3  3  3  3  3  3
CENTRE ASSIGNMENTS    3  3  3  3  3  3  3  3
TYPE ASSIGNMENTS      1  1  1  1  1  1  1  1  1  1  1  2  2  2  2  2  2  2  2  2
TYPE ASSIGNMENTS      3  3  3  3  3  3  3  3  3  4  4  4  4  4  4  4  4  4  2  3
TYPE ASSIGNMENTS      4  2  3  4  5  6  7  8  9 10  5  6  7  8  9 10 11 12 13 17
TYPE ASSIGNMENTS     14 15 18 19 16 20  1  1  1  1  1  1  1  1  1  1  1  1  1  1
TYPE ASSIGNMENTS      1  1  1  1  1  2  3  4  2  3  4  5  6  7  8  9 10  1  1  1
TYPE ASSIGNMENTS      1  1  1  1  1  1  1  1  1  1  1  1  1  1  1  1  2  3  4  2
TYPE ASSIGNMENTS      3  4  5  6  7  8  9 10
EXPONENTS  0.1253460e+00 0.2680220e+00 0.5730980e+00 0.1225429e+01 0.2620277e+01
EXPONENTS  0.5602818e+01 0.1198025e+02 0.2561680e+02 0.5477522e+02 0.1686633e+01
EXPONENTS  0.2379970e+00 0.8359800e-01 0.1670170e+00 0.3336730e+00 0.6666270e+00
EXPONENTS  0.1331816e+01 0.2660761e+01 0.5315785e+01 0.1062011e+02 0.2121732e+02
EXPONENTS  0.8359800e-01 0.1670170e+00 0.3336730e+00 0.6666270e+00 0.1331816e+01
EXPONENTS  0.2660761e+01 0.5315785e+01 0.1062011e+02 0.2121732e+02 0.8359800e-01
EXPONENTS  0.1670170e+00 0.3336730e+00 0.6666270e+00 0.1331816e+01 0.2660761e+01
EXPONENTS  0.5315785e+01 0.1062011e+02 0.2121732e+02 0.1846960e+00 0.1846960e+00
EXPONENTS  0.1846960e+00 0.6006210e+00 0.6006210e+00 0.6006210e+00 0.6693400e+00
EXPONENTS  0.6693400e+00 0.6693400e+00 0.6693400e+00 0.6693400e+00 0.6693400e+00
EXPONENTS  0.2404278e+01 0.2404278e+01 0.2404278e+01 0.2404278e+01 0.2404278e+01
EXPONENTS  0.2404278e+01 0.1423104e+01 0.1423104e+01 0.1423104e+01 0.1423104e+01
EXPONENTS  0.1423104e+01 0.1423104e+01 0.1423104e+01 0.1423104e+01 0.1423104e+01
EXPONENTS  0.1423104e+01 0.6359201e+01 0.3546637e+01 0.1493442e+01 0.5519480e+00
EXPONENTS  0.2072030e+00 0.7923400e-01 0.6359201e+01 0.3546637e+01 0.1493442e+01
EXPONENTS  0.5519480e+00 0.2072030e+00 0.7923400e-01 0.6359201e+01 0.3546637e+01
EXPONENTS  0.1493442e+01 0.5519480e+00 0.2072030e+00 0.7923400e-01 0.1027000e+00
EXPONENTS  0.1407000e+01 0.1407000e+01 0.1407000e+01 0.3880000e+00 0.3880000e+00
EXPONENTS  0.3880000e+00 0.1057000e+01 0.1057000e+01 0.1057000e+01 0.1057000e+01
EXPONENTS  0.1057000e+01 0.1057000e+01 0.6359201e+01 0.3546637e+01 0.1493442e+01
EXPONENTS  0.5519480e+00 0.2072030e+00 0.7923400e-01 0.6359201e+01 0.3546637e+01
EXPONENTS  0.1493442e+01 0.5519480e+00 0.2072030e+00 0.7923400e-01 0.6359201e+01
EXPONENTS  0.3546637e+01 0.1493442e+01 0.5519480e+00 0.2072030e+00 0.7923400e-01
EXPONENTS  0.1027000e+00 0.1407000e+01 0.1407000e+01 0.1407000e+01 0.3880000e+00
EXPONENTS  0.3880000e+00 0.3880000e+00 0.1057000e+01 0.1057000e+01 0.1057000e+01
EXPONENTS  0.1057000e+01 0.1057000e+01 0.1057000e+01
MO    1     MO 0.0        OCC NO =    2.0000000  ORB. ENERGY =   -0.999841
  0.70070236e-02  0.67762145e-01  0.17834716e+00  0.20567202e+00  0.24046984e-01
 -0.27952007e+00  0.46203429e-01  0.27654388e-02 -0.91311953e-03 -0.40977212e-02
 -0.35464663e-01  0.00000000e+00  0.00000000e+00  0.00000000e+00  0.00000000e+00
  0.00000000e+00  0.00000000e+00  0.00000000e+00  0.00000000e+00  0.00000000e+00
  0.00000000e+00  0.00000000e+00  0.00000000e+00  0.00000000e+00  0.00000000e+00
  0.00000000e+00  0.00000000e+00  0.00000000e+00  0.00000000e+00 -0.53450180e-03
 -0.42407808e-02 -0.17170658e-01 -0.44906962e-01 -0.91889079e-01 -0.14482444e+00
 -0.17571087e+00 -0.20231147e+00 -0.56352538e-01  0.00000000e+00  0.00000000e+00
  0.12955157e-01  0.00000000e+00  0.00000000e+00  0.27817504e-01  0.35557275e-02
 -0.36750141e-02  0.11928656e-03  0.00000000e+00  0.00000000e+00  0.00000000e+00
 -0.34486932e-01  0.21724115e-01  0.12762817e-01  0.00000000e+00  0.00000000e+00
  0.00000000e+00  0.00000000e+00  0.00000000e+00 -0.35772163e-02  0.00000000e+00
  0.00000000e+00 -0.56384688e-02  0.00000000e+00  0.00000000e+00  0.16370118e-01
  0.00000000e+00 -0.21254056e-02  0.13758137e-01  0.53926624e-02  0.19795964e-01
  0.31468878e-03  0.12348696e-01  0.60537816e-02  0.13530893e-02  0.27927301e-01
  0.16586243e-01  0.29840655e-01 -0.19280120e-01  0.15051733e-02  0.30271445e-02
  0.14975513e-01  0.13815173e-01 -0.16634279e-01  0.43337408e-02  0.47328106e-02
  0.00000000e+00 -0.33748103e-01  0.23480701e-01  0.00000000e+00 -0.12904410e-01
  0.67866733e-02 -0.77807130e-02  0.79502215e-02 -0.16950848e-03  0.00000000e+00
  0.00000000e+00 -0.19446315e-01 -0.21254056e-02  0.13758137e-01  0.53926624e-02
  0.19795964e-01  0.31468878e-03  0.12348696e-01  0.60537816e-02  0.13530893e-02
  0.27927301e-01  0.16586243e-01  0.29840655e-01 -0.19280120e-01  0.15051733e-02
  0.30271445e-02  0.14975513e-01  0.13815173e-01 -0.16634279e-01  0.43337408e-02
  0.47328106e-02  0.00000000e+00  0.33748103e-01  0.23480701e-01  0.00000000e+00
  0.12904410e-01  0.67866733e-02 -0.77807130e-02  0.79502215e-02 -0.16950848e-03
  0.00000000e+00  0.00000000e+00  0.19446315e-01
MO    2     MO 0.0        OCC NO =    2.0000000  ORB. ENERGY =   -0.530671
  0.00000000e+00  0.00000000e+00  0.00000000e+00  0.00000000e+00  0.00000000e+00
  0.00000000e+00  0.00000000e+00  0.00000000e+00  0.00000000e+00  0.00000000e+00
  0.00000000e+00  0.00000000e+00  0.00000000e+00  0.00000000e+00  0.00000000e+00
  0.00000000e+00  0.00000000e+00  0.00000000e+00  0.00000000e+00  0.00000000e+00
  0.22774097e-02  0.18069154e-01  0.73160881e-01  0.19133996e+00  0.39152175e+00
  0.61706917e+00  0.74867035e+00  0.86201039e+00  0.24010736e+00  0.00000000e+00
  0.00000000e+00  0.00000000e+00  0.00000000e+00  0.00000000e+00  0.00000000e+00
  0.00000000e+00  0.00000000e+00  0.00000000e+00  0.00000000e+00 -0.24194990e-01
  0.00000000e+00  0.00000000e+00 -0.84396528e-01  0.00000000e+00  0.00000000e+00
  0.00000000e+00  0.00000000e+00  0.00000000e+00  0.00000000e+00  0.22254241e-01
  0.00000000e+00  0.00000000e+00  0.00000000e+00  0.00000000e+00  0.00000000e+00
 -0.16005635e+00  0.00000000e+00  0.57147747e-02  0.00000000e+00  0.00000000e+00
  0.18101651e-01  0.00000000e+00  0.00000000e+00 -0.35245975e-01  0.00000000e+00
  0.00000000e+00 -0.52436583e-02  0.33943152e-01  0.13304415e-01  0.48839275e-01
  0.77637905e-03  0.30465874e-01  0.10285896e-01  0.22990152e-02  0.47450888e-01
  0.28181455e-01  0.50701842e-01 -0.32758584e-01  0.12500202e-02  0.25139907e-02
  0.12436903e-01  0.11473260e-01 -0.13814478e-01  0.35990961e-02  0.16804187e-02
  0.00000000e+00 -0.41271559e-01  0.42841002e-01  0.00000000e+00 -0.14311031e-01
  0.15895191e-01 -0.12976050e-01  0.91157596e-02  0.38602901e-02  0.00000000e+00
  0.00000000e+00 -0.41204949e-01  0.52436583e-02 -0.33943152e-01 -0.13304415e-01
 -0.48839275e-01 -0.77637905e-03 -0.30465874e-01 -0.10285896e-01 -0.22990152e-02
 -0.47450888e-01 -0.28181455e-01 -0.50701842e-01  0.32758584e-01 -0.12500202e-02
 -0.25139907e-02 -0.12436903e-01 -0.11473260e-01  0.13814478e-01 -0.35990961e-02
 -0.16804187e-02  0.00000000e+00 -0.41271559e-01 -0.42841002e-01  0.00000000e+00
 -0.14311031e-01 -0.15895191e-01  0.12976050e-01 -0.91157596e-02 -0.38602901e-02
  0.00000000e+00  0.00000000e+00 -0.41204949e-01
MO    3     MO 0.0        OCC NO =    2.0000000  ORB. ENERGY =   -0.388339
  0.28981778e-02  0.28027128e-01  0.73766237e-01  0.85068083e-01  0.99460825e-02
 -0.11561240e+00  0.19110218e-01  0.11438142e-02 -0.37767573e-03  0.47960269e-03
  0.52073489e-01  0.00000000e+00  0.00000000e+00  0.00000000e+00  0.00000000e+00
  0.00000000e+00  0.00000000e+00  0.00000000e+00  0.00000000e+00  0.00000000e+00
  0.00000000e+00  0.00000000e+00  0.00000000e+00  0.00000000e+00  0.00000000e+00
  0.00000000e+00  0.00000000e+00  0.00000000e+00  0.00000000e+00  0.24419667e-02
  0.19374762e-01  0.78447208e-01  0.20516545e+00  0.41981162e+00  0.66165624e+00
  0.80276642e+00  0.92429598e+00  0.25745661e+00  0.00000000e+00  0.00000000e+00
 -0.46778537e-02  0.00000000e+00  0.00000000e+00 -0.50398370e-01  0.99707102e-03
  0.11828033e-01 -0.12825104e-01  0.00000000e+00  0.00000000e+00  0.00000000e+00
  0.36397594e-01  0.64723566e-02 -0.42869950e-01  0.00000000e+00  0.00000000e+00
  0.00000000e+00  0.00000000e+00  0.00000000e+00  0.68096107e-02  0.00000000e+00
  0.00000000e+00 -0.43282775e-02  0.00000000e+00  0.00000000e+00 -0.16100554e-01
  0.00000000e+00  0.28392391e-02 -0.18378910e-01 -0.72038286e-02 -0.26444587e-01
 -0.42037937e-03 -0.16496098e-01 -0.61962870e-02 -0.13849409e-02 -0.28584707e-01
 -0.16976682e-01 -0.30543101e-01  0.19733973e-01 -0.70424909e-03 -0.14163577e-02
 -0.70068287e-02 -0.64639221e-02  0.77829412e-02 -0.20276954e-02 -0.24838286e-02
  0.00000000e+00  0.28558099e-01 -0.28103375e-02  0.00000000e+00  0.12701823e-01
  0.48961972e-02  0.67827977e-02 -0.11231575e-01  0.44487771e-02  0.00000000e+00
  0.00000000e+00  0.10279241e-01  0.28392391e-02 -0.18378910e-01 -0.72038286e-02
 -0.26444587e-01 -0.42037937e-03 -0.16496098e-01 -0.61962870e-02 -0.13849409e-02
 -0.28584707e-01 -0.16976682e-01 -0.30543101e-01  0.19733973e-01 -0.70424909e-03
 -0.14163577e-02 -0.70068287e-02 -0.64639221e-02  0.77829412e-02 -0.20276954e-02
 -0.24838286e-02  0.00000000e+00 -0.28558099e-01 -0.28103375e-02  0.00000000e+00
 -0.12701823e-01  0.48961972e-02  0.67827977e-02 -0.11231575e-01  0.44487771e-02
  0.00000000e+00  0.00000000e+00 -0.10279241e-01
MO    4     MO 0.0        OCC NO =    2.0000000  ORB. ENERGY =   -0.318088
  0.00000000e+00  0.00000000e+00  0.00000000e+00  0.00000000e+00  0.00000000e+00
  0.00000000e+00  0.00000000e+00  0.00000000e+00  0.00000000e+00  0.00000000e+00
  0.00000000e+00  0.27958238e-02  0.22182294e-01  0.89814729e-01  0.23489529e+00
  0.48064511e+00  0.75753461e+00  0.91909260e+00  0.10582326e+01  0.29476378e+00
  0.00000000e+00  0.00000000e+00  0.00000000e+00  0.00000000e+00  0.00000000e+00
  0.00000000e+00  0.00000000e+00  0.00000000e+00  0.00000000e+00  0.00000000e+00
  0.00000000e+00  0.00000000e+00  0.00000000e+00  0.00000000e+00  0.00000000e+00
  0.00000000e+00  0.00000000e+00  0.00000000e+00  0.71829250e-02  0.00000000e+00
  0.00000000e+00 -0.32189095e-01  0.00000000e+00  0.00000000e+00  0.00000000e+00
  0.00000000e+00  0.00000000e+00  0.00000000e+00 -0.25172856e-01  0.00000000e+00
  0.00000000e+00  0.00000000e+00  0.00000000e+00  0.00000000e+00 -0.69869190e-01
  0.00000000e+00 -0.11081305e-01  0.00000000e+00  0.00000000e+00  0.22939912e-01
  0.00000000e+00  0.00000000e+00  0.10304003e-01  0.00000000e+00  0.00000000e+00
  0.00000000e+00  0.00000000e+00  0.00000000e+00  0.00000000e+00  0.00000000e+00
  0.00000000e+00  0.00000000e+00  0.00000000e+00  0.00000000e+00  0.00000000e+00
  0.00000000e+00  0.00000000e+00  0.00000000e+00  0.00000000e+00  0.00000000e+00
  0.00000000e+00  0.00000000e+00  0.00000000e+00  0.00000000e+00  0.00000000e+00
  0.23458062e-01  0.00000000e+00  0.00000000e+00  0.14724257e-01  0.00000000e+00
  0.00000000e+00  0.00000000e+00  0.00000000e+00  0.00000000e+00 -0.15006906e-01
  0.96314726e-02  0.00000000e+00  0.00000000e+00  0.00000000e+00  0.00000000e+00
  0.00000000e+00  0.00000000e+00  0.00000000e+00  0.00000000e+00  0.00000000e+00
  0.00000000e+00  0.00000000e+00  0.00000000e+00  0.00000000e+00  0.00000000e+00
  0.00000000e+00  0.00000000e+00  0.00000000e+00  0.00000000e+00  0.00000000e+00
  0.00000000e+00  0.23458062e-01  0.00000000e+00  0.00000000e+00  0.14724257e-01
  0.00000000e+00  0.00000000e+00  0.00000000e+00  0.00000000e+00  0.00000000e+00
  0.15006906e-01  0.96314726e-02  0.00000000e+00
ENe eATA
THE HF ENERGY = -17.275710473509 THE VIRIAL(-V/T)= 2.28055884
