 H2O Opt B3LYP/Bur (O VTZ, H VTZ-ANO_Filippi)            
GAUSSIAN              4 MOL ORBITALS    128 PRIMITIVES        3 NUCLEI
  O    1    (CENTRE  1)   0.00000000  0.00000000  0.22160692  CHARGE =  6.0
  H    2    (CENTRE  2)   0.00000000  1.44581258 -0.88642769  CHARGE =  1.0
  H    3    (CENTRE  3)   0.00000000 -1.44581258 -0.88642769  CHARGE =  1.0
CENTRE ASSIGNMENTS    1  1  1  1  1  1  1  1  1  1  1  1  1  1  1  1  1  1  1  1
CENTRE ASSIGNMENTS    1  1  1  1  1  1  1  1  1  1  1  1  1  1  1  1  1  1  1  1
CENTRE ASSIGNMENTS    1  1  1  1  1  1  1  1  1  1  1  1  1  1  1  1  1  1  1  1
CENTRE ASSIGNMENTS    1  1  1  1  1  1  2  2  2  2  2  2  2  2  2  2  2  2  2  2
CENTRE ASSIGNMENTS    2  2  2  2  2  2  2  2  2  2  2  2  2  2  2  2  2  3  3  3
CENTRE ASSIGNMENTS    3  3  3  3  3  3  3  3  3  3  3  3  3  3  3  3  3  3  3  3
CENTRE ASSIGNMENTS    3  3  3  3  3  3  3  3
TYPE ASSIGNMENTS      1  1  1  1  1  1  1  1  1  1  1  2  2  2  2  2  2  2  2  2
TYPE ASSIGNMENTS      3  3  3  3  3  3  3  3  3  4  4  4  4  4  4  4  4  4  2  3
TYPE ASSIGNMENTS      4  2  3  4  5  6  7  8  9 10  5  6  7  8  9 10 11 12 13 17
TYPE ASSIGNMENTS     14 15 18 19 16 20  1  1  1  1  1  1  1  1  1  1  1  1  1  1
TYPE ASSIGNMENTS      1  1  1  1  1  2  3  4  2  3  4  5  6  7  8  9 10  1  1  1
TYPE ASSIGNMENTS      1  1  1  1  1  1  1  1  1  1  1  1  1  1  1  1  2  3  4  2
TYPE ASSIGNMENTS      3  4  5  6  7  8  9 10
EXPONENTS  0.1253460D+00 0.2680220D+00 0.5730980D+00 0.1225429D+01 0.2620277D+01
EXPONENTS  0.5602818D+01 0.1198025D+02 0.2561680D+02 0.5477522D+02 0.1686633D+01
EXPONENTS  0.2379970D+00 0.8359800D-01 0.1670170D+00 0.3336730D+00 0.6666270D+00
EXPONENTS  0.1331816D+01 0.2660761D+01 0.5315785D+01 0.1062011D+02 0.2121732D+02
EXPONENTS  0.8359800D-01 0.1670170D+00 0.3336730D+00 0.6666270D+00 0.1331816D+01
EXPONENTS  0.2660761D+01 0.5315785D+01 0.1062011D+02 0.2121732D+02 0.8359800D-01
EXPONENTS  0.1670170D+00 0.3336730D+00 0.6666270D+00 0.1331816D+01 0.2660761D+01
EXPONENTS  0.5315785D+01 0.1062011D+02 0.2121732D+02 0.1846960D+00 0.1846960D+00
EXPONENTS  0.1846960D+00 0.6006210D+00 0.6006210D+00 0.6006210D+00 0.6693400D+00
EXPONENTS  0.6693400D+00 0.6693400D+00 0.6693400D+00 0.6693400D+00 0.6693400D+00
EXPONENTS  0.2404278D+01 0.2404278D+01 0.2404278D+01 0.2404278D+01 0.2404278D+01
EXPONENTS  0.2404278D+01 0.1423104D+01 0.1423104D+01 0.1423104D+01 0.1423104D+01
EXPONENTS  0.1423104D+01 0.1423104D+01 0.1423104D+01 0.1423104D+01 0.1423104D+01
EXPONENTS  0.1423104D+01 0.6359201D+01 0.3546637D+01 0.1493442D+01 0.5519480D+00
EXPONENTS  0.2072030D+00 0.7923400D-01 0.6359201D+01 0.3546637D+01 0.1493442D+01
EXPONENTS  0.5519480D+00 0.2072030D+00 0.7923400D-01 0.6359201D+01 0.3546637D+01
EXPONENTS  0.1493442D+01 0.5519480D+00 0.2072030D+00 0.7923400D-01 0.1027000D+00
EXPONENTS  0.1407000D+01 0.1407000D+01 0.1407000D+01 0.3880000D+00 0.3880000D+00
EXPONENTS  0.3880000D+00 0.1057000D+01 0.1057000D+01 0.1057000D+01 0.1057000D+01
EXPONENTS  0.1057000D+01 0.1057000D+01 0.6359201D+01 0.3546637D+01 0.1493442D+01
EXPONENTS  0.5519480D+00 0.2072030D+00 0.7923400D-01 0.6359201D+01 0.3546637D+01
EXPONENTS  0.1493442D+01 0.5519480D+00 0.2072030D+00 0.7923400D-01 0.6359201D+01
EXPONENTS  0.3546637D+01 0.1493442D+01 0.5519480D+00 0.2072030D+00 0.7923400D-01
EXPONENTS  0.1027000D+00 0.1407000D+01 0.1407000D+01 0.1407000D+01 0.3880000D+00
EXPONENTS  0.3880000D+00 0.3880000D+00 0.1057000D+01 0.1057000D+01 0.1057000D+01
EXPONENTS  0.1057000D+01 0.1057000D+01 0.1057000D+01
MO    1     MO 0.0        OCC NO =    2.0000000  ORB. ENERGY =   -0.999841
  0.70070236D-02  0.67762145D-01  0.17834716D+00  0.20567202D+00  0.24046984D-01
 -0.27952007D+00  0.46203429D-01  0.27654388D-02 -0.91311953D-03 -0.40977212D-02
 -0.35464663D-01  0.00000000D+00  0.00000000D+00  0.00000000D+00  0.00000000D+00
  0.00000000D+00  0.00000000D+00  0.00000000D+00  0.00000000D+00  0.00000000D+00
  0.00000000D+00  0.00000000D+00  0.00000000D+00  0.00000000D+00  0.00000000D+00
  0.00000000D+00  0.00000000D+00  0.00000000D+00  0.00000000D+00 -0.53450180D-03
 -0.42407808D-02 -0.17170658D-01 -0.44906962D-01 -0.91889079D-01 -0.14482444D+00
 -0.17571087D+00 -0.20231147D+00 -0.56352538D-01  0.00000000D+00  0.00000000D+00
  0.12955157D-01  0.00000000D+00  0.00000000D+00  0.27817504D-01  0.35557275D-02
 -0.36750141D-02  0.11928656D-03  0.00000000D+00  0.00000000D+00  0.00000000D+00
 -0.34486932D-01  0.21724115D-01  0.12762817D-01  0.00000000D+00  0.00000000D+00
  0.00000000D+00  0.00000000D+00  0.00000000D+00 -0.35772163D-02  0.00000000D+00
  0.00000000D+00 -0.56384688D-02  0.00000000D+00  0.00000000D+00  0.16370118D-01
  0.00000000D+00 -0.21254056D-02  0.13758137D-01  0.53926624D-02  0.19795964D-01
  0.31468878D-03  0.12348696D-01  0.60537816D-02  0.13530893D-02  0.27927301D-01
  0.16586243D-01  0.29840655D-01 -0.19280120D-01  0.15051733D-02  0.30271445D-02
  0.14975513D-01  0.13815173D-01 -0.16634279D-01  0.43337408D-02  0.47328106D-02
  0.00000000D+00 -0.33748103D-01  0.23480701D-01  0.00000000D+00 -0.12904410D-01
  0.67866733D-02 -0.77807130D-02  0.79502215D-02 -0.16950848D-03  0.00000000D+00
  0.00000000D+00 -0.19446315D-01 -0.21254056D-02  0.13758137D-01  0.53926624D-02
  0.19795964D-01  0.31468878D-03  0.12348696D-01  0.60537816D-02  0.13530893D-02
  0.27927301D-01  0.16586243D-01  0.29840655D-01 -0.19280120D-01  0.15051733D-02
  0.30271445D-02  0.14975513D-01  0.13815173D-01 -0.16634279D-01  0.43337408D-02
  0.47328106D-02  0.00000000D+00  0.33748103D-01  0.23480701D-01  0.00000000D+00
  0.12904410D-01  0.67866733D-02 -0.77807130D-02  0.79502215D-02 -0.16950848D-03
  0.00000000D+00  0.00000000D+00  0.19446315D-01
MO    2     MO 0.0        OCC NO =    2.0000000  ORB. ENERGY =   -0.530671
  0.00000000D+00  0.00000000D+00  0.00000000D+00  0.00000000D+00  0.00000000D+00
  0.00000000D+00  0.00000000D+00  0.00000000D+00  0.00000000D+00  0.00000000D+00
  0.00000000D+00  0.00000000D+00  0.00000000D+00  0.00000000D+00  0.00000000D+00
  0.00000000D+00  0.00000000D+00  0.00000000D+00  0.00000000D+00  0.00000000D+00
  0.22774097D-02  0.18069154D-01  0.73160881D-01  0.19133996D+00  0.39152175D+00
  0.61706917D+00  0.74867035D+00  0.86201039D+00  0.24010736D+00  0.00000000D+00
  0.00000000D+00  0.00000000D+00  0.00000000D+00  0.00000000D+00  0.00000000D+00
  0.00000000D+00  0.00000000D+00  0.00000000D+00  0.00000000D+00 -0.24194990D-01
  0.00000000D+00  0.00000000D+00 -0.84396528D-01  0.00000000D+00  0.00000000D+00
  0.00000000D+00  0.00000000D+00  0.00000000D+00  0.00000000D+00  0.22254241D-01
  0.00000000D+00  0.00000000D+00  0.00000000D+00  0.00000000D+00  0.00000000D+00
 -0.16005635D+00  0.00000000D+00  0.57147747D-02  0.00000000D+00  0.00000000D+00
  0.18101651D-01  0.00000000D+00  0.00000000D+00 -0.35245975D-01  0.00000000D+00
  0.00000000D+00 -0.52436583D-02  0.33943152D-01  0.13304415D-01  0.48839275D-01
  0.77637905D-03  0.30465874D-01  0.10285896D-01  0.22990152D-02  0.47450888D-01
  0.28181455D-01  0.50701842D-01 -0.32758584D-01  0.12500202D-02  0.25139907D-02
  0.12436903D-01  0.11473260D-01 -0.13814478D-01  0.35990961D-02  0.16804187D-02
  0.00000000D+00 -0.41271559D-01  0.42841002D-01  0.00000000D+00 -0.14311031D-01
  0.15895191D-01 -0.12976050D-01  0.91157596D-02  0.38602901D-02  0.00000000D+00
  0.00000000D+00 -0.41204949D-01  0.52436583D-02 -0.33943152D-01 -0.13304415D-01
 -0.48839275D-01 -0.77637905D-03 -0.30465874D-01 -0.10285896D-01 -0.22990152D-02
 -0.47450888D-01 -0.28181455D-01 -0.50701842D-01  0.32758584D-01 -0.12500202D-02
 -0.25139907D-02 -0.12436903D-01 -0.11473260D-01  0.13814478D-01 -0.35990961D-02
 -0.16804187D-02  0.00000000D+00 -0.41271559D-01 -0.42841002D-01  0.00000000D+00
 -0.14311031D-01 -0.15895191D-01  0.12976050D-01 -0.91157596D-02 -0.38602901D-02
  0.00000000D+00  0.00000000D+00 -0.41204949D-01
MO    3     MO 0.0        OCC NO =    2.0000000  ORB. ENERGY =   -0.388339
  0.28981778D-02  0.28027128D-01  0.73766237D-01  0.85068083D-01  0.99460825D-02
 -0.11561240D+00  0.19110218D-01  0.11438142D-02 -0.37767573D-03  0.47960269D-03
  0.52073489D-01  0.00000000D+00  0.00000000D+00  0.00000000D+00  0.00000000D+00
  0.00000000D+00  0.00000000D+00  0.00000000D+00  0.00000000D+00  0.00000000D+00
  0.00000000D+00  0.00000000D+00  0.00000000D+00  0.00000000D+00  0.00000000D+00
  0.00000000D+00  0.00000000D+00  0.00000000D+00  0.00000000D+00  0.24419667D-02
  0.19374762D-01  0.78447208D-01  0.20516545D+00  0.41981162D+00  0.66165624D+00
  0.80276642D+00  0.92429598D+00  0.25745661D+00  0.00000000D+00  0.00000000D+00
 -0.46778537D-02  0.00000000D+00  0.00000000D+00 -0.50398370D-01  0.99707102D-03
  0.11828033D-01 -0.12825104D-01  0.00000000D+00  0.00000000D+00  0.00000000D+00
  0.36397594D-01  0.64723566D-02 -0.42869950D-01  0.00000000D+00  0.00000000D+00
  0.00000000D+00  0.00000000D+00  0.00000000D+00  0.68096107D-02  0.00000000D+00
  0.00000000D+00 -0.43282775D-02  0.00000000D+00  0.00000000D+00 -0.16100554D-01
  0.00000000D+00  0.28392391D-02 -0.18378910D-01 -0.72038286D-02 -0.26444587D-01
 -0.42037937D-03 -0.16496098D-01 -0.61962870D-02 -0.13849409D-02 -0.28584707D-01
 -0.16976682D-01 -0.30543101D-01  0.19733973D-01 -0.70424909D-03 -0.14163577D-02
 -0.70068287D-02 -0.64639221D-02  0.77829412D-02 -0.20276954D-02 -0.24838286D-02
  0.00000000D+00  0.28558099D-01 -0.28103375D-02  0.00000000D+00  0.12701823D-01
  0.48961972D-02  0.67827977D-02 -0.11231575D-01  0.44487771D-02  0.00000000D+00
  0.00000000D+00  0.10279241D-01  0.28392391D-02 -0.18378910D-01 -0.72038286D-02
 -0.26444587D-01 -0.42037937D-03 -0.16496098D-01 -0.61962870D-02 -0.13849409D-02
 -0.28584707D-01 -0.16976682D-01 -0.30543101D-01  0.19733973D-01 -0.70424909D-03
 -0.14163577D-02 -0.70068287D-02 -0.64639221D-02  0.77829412D-02 -0.20276954D-02
 -0.24838286D-02  0.00000000D+00 -0.28558099D-01 -0.28103375D-02  0.00000000D+00
 -0.12701823D-01  0.48961972D-02  0.67827977D-02 -0.11231575D-01  0.44487771D-02
  0.00000000D+00  0.00000000D+00 -0.10279241D-01
MO    4     MO 0.0        OCC NO =    2.0000000  ORB. ENERGY =   -0.318088
  0.00000000D+00  0.00000000D+00  0.00000000D+00  0.00000000D+00  0.00000000D+00
  0.00000000D+00  0.00000000D+00  0.00000000D+00  0.00000000D+00  0.00000000D+00
  0.00000000D+00  0.27958238D-02  0.22182294D-01  0.89814729D-01  0.23489529D+00
  0.48064511D+00  0.75753461D+00  0.91909260D+00  0.10582326D+01  0.29476378D+00
  0.00000000D+00  0.00000000D+00  0.00000000D+00  0.00000000D+00  0.00000000D+00
  0.00000000D+00  0.00000000D+00  0.00000000D+00  0.00000000D+00  0.00000000D+00
  0.00000000D+00  0.00000000D+00  0.00000000D+00  0.00000000D+00  0.00000000D+00
  0.00000000D+00  0.00000000D+00  0.00000000D+00  0.71829250D-02  0.00000000D+00
  0.00000000D+00 -0.32189095D-01  0.00000000D+00  0.00000000D+00  0.00000000D+00
  0.00000000D+00  0.00000000D+00  0.00000000D+00 -0.25172856D-01  0.00000000D+00
  0.00000000D+00  0.00000000D+00  0.00000000D+00  0.00000000D+00 -0.69869190D-01
  0.00000000D+00 -0.11081305D-01  0.00000000D+00  0.00000000D+00  0.22939912D-01
  0.00000000D+00  0.00000000D+00  0.10304003D-01  0.00000000D+00  0.00000000D+00
  0.00000000D+00  0.00000000D+00  0.00000000D+00  0.00000000D+00  0.00000000D+00
  0.00000000D+00  0.00000000D+00  0.00000000D+00  0.00000000D+00  0.00000000D+00
  0.00000000D+00  0.00000000D+00  0.00000000D+00  0.00000000D+00  0.00000000D+00
  0.00000000D+00  0.00000000D+00  0.00000000D+00  0.00000000D+00  0.00000000D+00
  0.23458062D-01  0.00000000D+00  0.00000000D+00  0.14724257D-01  0.00000000D+00
  0.00000000D+00  0.00000000D+00  0.00000000D+00  0.00000000D+00 -0.15006906D-01
  0.96314726D-02  0.00000000D+00  0.00000000D+00  0.00000000D+00  0.00000000D+00
  0.00000000D+00  0.00000000D+00  0.00000000D+00  0.00000000D+00  0.00000000D+00
  0.00000000D+00  0.00000000D+00  0.00000000D+00  0.00000000D+00  0.00000000D+00
  0.00000000D+00  0.00000000D+00  0.00000000D+00  0.00000000D+00  0.00000000D+00
  0.00000000D+00  0.23458062D-01  0.00000000D+00  0.00000000D+00  0.14724257D-01
  0.00000000D+00  0.00000000D+00  0.00000000D+00  0.00000000D+00  0.00000000D+00
  0.15006906D-01  0.96314726D-02  0.00000000D+00
END DATA
THE HF ENERGY = -17.275710473509 THE VIRIAL(-V/T)= 2.28055884
