 Test for Jeremy, dist 0.74 Angs
GAUSSIAN              1 MOL ORBITALS     12 PRIMITIVES        2 NUCLEI
  H    1    (CENTRE  1)   0.00000000  0.00000000  0.69919867  CHARGE =  1.0
  H    2    (CENTRE  2)   0.00000000  0.00000000 -0.69919867  CHARGE =  1.0
CENTRE ASSIGNMENTS    1  1  1  1  1  1  2  2  2  2  2  2
TYPE ASSIGNMENTS      1  1  1  1  1  1  1  1  1  1  1  1
EXPONENTS  0.3552322D+02 0.6513144D+01 0.1822143D+01 0.6259553D+00 0.2430767D+00
EXPONENTS  0.1001124D+00 0.3552322D+02 0.6513144D+01 0.1822143D+01 0.6259553D+00
EXPONENTS  0.2430767D+00 0.1001124D+00
MO    1     MO 0.0        OCC NO =    2.0000000  ORB. ENERGY =   -0.582889
  0.52158668D-01  0.78724076D-01  0.10339790D+00  0.10201067D+00  0.56401418D-01
  0.90740316D-02  0.52158668D-01  0.78724076D-01  0.10339790D+00  0.10201067D+00
  0.56401418D-01  0.90740316D-02
END DATA
 TOTAL ENERGY =       -1.125372194464 THE VIRIAL(-V/T)=   1.93058566
