 Test for Jeremy
GAUSSIAN              1 MOL ORBITALS      7 PRIMITIVES        1 NUCLEI
  HD   1    (CENTRE  1)   0.00000000  0.00000000  0.00000000  CHARGE =  2.0
CENTRE ASSIGNMENTS    1  1  1  1  1  1  1
TYPE ASSIGNMENTS      1  1  1  1  2  3  4
EXPONENTS  0.3836000D+02 0.5770000D+01 0.1240000D+01 0.2976000D+00 0.1275000D+01
EXPONENTS  0.1275000D+01 0.1275000D+01
MO    1     MO 0.0        OCC NO =    2.0000000  ORB. ENERGY =   -0.914148
  0.26155325D+00  0.41097752D+00  0.39360638D+00  0.14732444D+00  0.00000000D+00
  0.00000000D+00  0.00000000D+00
END DATA
 TOTAL ENERGY =       -2.855160477243 THE VIRIAL(-V/T)=   1.99999451
