 Test for Jeremy
GAUSSIAN              2 MOL ORBITALS      7 PRIMITIVES        1 NUCLEI
  HD   1    (CENTRE  1)   0.00000000  0.00000000  0.00000000  CHARGE =  2.0
CENTRE ASSIGNMENTS    1  1  1  1  1  1  1
TYPE ASSIGNMENTS      1  1  1  1  2  3  4
EXPONENTS  0.3836000D+02 0.5770000D+01 0.1240000D+01 0.2976000D+00 0.1275000D+01
EXPONENTS  0.1275000D+01 0.1275000D+01
MO    1     MO 0.0        OCC NO =    1.0000000  ORB. ENERGY =   -0.456190
  0.27054110D+00  0.42510009D+00  0.40713202D+00  0.14123376D+00  0.00000000D+00
  0.00000000D+00  0.00000000D+00
MO    2     MO 0.0        OCC NO =    1.0000000  ORB. ENERGY =    0.691263
 -0.50263312D+00 -0.78978530D+00 -0.75640277D+00  0.34350146D+00  0.00000000D+00
  0.00000000D+00  0.00000000D+00
END DATA
 TOTAL ENERGY =       -1.401163276701 THE VIRIAL(-V/T)=   1.30164684
