 Test for Jeremy - He STO-6G
GAUSSIAN              1 MOL ORBITALS      6 PRIMITIVES        1 NUCLEI
  HD   1    (CENTRE  1)   0.00000000  0.00000000  0.00000000  CHARGE =  2.0
CENTRE ASSIGNMENTS    1  1  1  1  1  1
TYPE ASSIGNMENTS      1  1  1  1  1  1
EXPONENTS  0.6598457D+02 0.1209820D+02 0.3384640D+01 0.1162715D+01 0.4515163D+00
EXPONENTS  0.1859594D+00
MO    1     MO 0.0        OCC NO =    2.0000000  ORB. ENERGY =   -0.895022
  0.15120210D+00  0.22821222D+00  0.29973887D+00  0.29571742D+00  0.16350136D+00
  0.26304595D-01
END DATA
 TOTAL ENERGY =       -2.846292094778 THE VIRIAL(-V/T)=   1.99692627
